ITEM: TIMESTEP
400000
ITEM: NUMBER OF ATOMS
512
ITEM: BOX BOUNDS pp pp pp
0.000000e+00 2.506880e+01
0.000000e+00 2.506880e+01
0.000000e+00 2.506880e+01
ITEM: ATOMS id x y z fx fy fz
1 16.413898 9.712500 19.730928 4.654940 -4.152530 -3.402100
2 7.048445 18.197454 23.462545 -10.172180 -0.843440 -6.756770
3 6.063610 24.325823 20.709499 2.473076 -4.963433 4.521320
4 22.832829 25.062500 15.135400 -1.946710 -3.584570 5.833910
5 4.696403 15.210722 24.965649 -4.504602 -8.916732 0.261746
6 18.655117 6.371779 16.268450 -1.303510 -8.460532 -6.704190
7 17.553761 22.375261 24.236628 -0.077751 -4.870578 0.253336
8 6.439224 10.662309 3.333632 2.929600 -0.782880 -1.843570
9 0.005239 17.643127 25.042192 1.580013 -2.449010 6.019990
10 15.325328 10.419522 16.488033 -5.524032 -0.547113 -3.193310
11 3.488897 4.155874 9.543069 4.971460 -8.659788 -1.736114
12 5.260030 24.142727 16.319822 3.859730 -0.021330 3.846360
13 8.667868 8.195088 4.474898 2.127990 -1.182680 3.303001
14 1.587478 15.272056 13.669750 11.719190 4.315890 3.690820
15 3.586615 3.898803 16.898417 14.377580 -9.915680 9.823364
16 19.504778 25.028437 2.143829 -4.688608 3.590975 4.882904
17 2.466543 18.006956 15.133022 2.262140 1.235977 -7.009599
18 2.742270 11.574306 4.095584 8.787882 5.565983 1.392460
19 18.129223 1.808558 9.934165 21.565300 4.577450 -9.201120
20 5.965259 7.331467 18.156677 -4.346940 16.088488 -5.944450
21 14.025889 20.872545 12.744123 -3.312780 -4.751211 -1.849970
22 17.717388 22.601151 2.397309 -0.128587 -1.260310 -4.712104
23 18.660490 13.318061 7.289429 -0.941420 -5.589230 -4.293270
24 19.529623 19.808149 15.366417 4.609364 -3.798650 4.498640
25 14.350172 5.162345 13.947272 -0.167858 2.236373 -0.414558
26 9.415948 24.797510 4.555330 -0.120590 -5.594482 -10.470020
27 21.463316 8.752022 20.166477 -2.245160 0.779920 -1.242284
28 9.378081 0.973955 6.940137 -3.908460 0.858258 6.569070
29 22.440372 6.636397 4.029508 -4.387719 3.239810 2.140390
30 17.984779 6.653605 21.722122 4.998709 0.850867 -4.744440
31 15.360289 2.742404 21.931273 3.501450 -5.551074 7.912220
32 24.933796 3.066268 7.181681 -0.650213 -4.364241 6.477050
33 8.333276 20.024679 21.906250 2.920996 2.226501 11.892410
34 18.205776 17.795038 9.843626 0.544780 -2.682092 17.754929
35 0.712880 7.642815 5.204720 4.479990 -4.309690 7.729431
36 4.799992 21.633711 10.455500 2.748300 5.068143 -5.229420
37 19.884201 22.715660 8.201277 8.548810 1.222281 -6.919496
38 22.877579 23.252083 1.159379 -1.925036 -3.553250 2.721610
39 10.967761 22.839405 6.711446 0.078645 9.269148 1.422882
40 20.639004 9.699496 24.579020 -4.584180 -2.712585 -1.464446
41 12.655550 18.594929 4.714802 2.528373 -0.359233 2.693780
42 24.030161 22.771406 12.699717 0.314007 -3.100782 -5.290130
43 10.363717 11.643400 22.787039 7.300358 0.000290 -5.454751
44 11.560956 1.936977 8.415574 5.754256 8.458747 0.735522
45 15.224661 13.338301 14.414888 5.135983 -2.546740 -6.903008
46 22.141521 16.015999 3.634207 6.994895 -0.046371 7.795442
47 20.804783 4.834595 5.514927 3.573380 -7.722900 -5.016260
48 17.278799 2.559437 24.218050 -2.257241 3.147380 -1.927500
49 24.698473 22.729445 20.793772 -2.714740 -0.508171 -7.786949
50 6.561846 8.127776 13.929517 2.295870 2.036621 -5.184450
51 4.977391 19.093451 13.960228 3.987101 -0.198640 5.577077
52 15.737283 16.434099 11.846094 -4.952291 7.540621 0.866144
53 7.999243 23.545622 15.306161 -3.617315 -0.541560 -0.204612
54 0.444324 22.355383 0.135931 0.730753 2.191250 1.223504
55 19.781494 21.544443 0.844821 4.223620 1.033793 -4.605459
56 8.213934 0.997479 16.723967 -0.084871 -1.191566 0.497968
57 10.720266 4.622621 2.315412 5.119260 -4.540175 3.404706
58 17.987600 12.968939 15.362322 -4.407122 11.095993 -1.684907
59 1.480181 19.806122 20.681717 7.983804 -6.775940 9.553920
60 12.344584 21.333817 20.608372 2.090761 4.181568 4.822341
61 5.362813 8.959816 6.211496 5.017930 -5.702320 -4.748154
62 8.029741 21.344473 18.177505 3.281107 2.400950 2.300778
63 14.357361 23.860939 22.956318 -1.199458 2.479950 2.065001
64 8.585903 23.703978 11.709333 0.829238 -3.320204 -1.778070
65 7.898038 14.759145 15.813328 -0.167083 -0.254631 0.417470
66 8.383617 17.053967 0.411764 10.397210 2.474750 -7.632446
67 10.762587 21.310221 22.946449 2.710662 -2.570181 -2.390534
68 2.373563 1.969578 15.535111 -14.274396 4.295305 1.218540
69 24.095078 12.795578 2.544364 4.934570 -3.343670 -10.409260
70 10.927178 24.544678 18.517645 -4.043910 2.688750 -0.226030
71 24.518633 1.495898 24.795078 6.472700 -6.083228 2.955229
72 20.938555 12.087511 8.630155 -0.251130 3.111321 -1.155808
73 10.390489 24.175150 22.628500 -0.914000 -7.313283 -1.753486
74 0.958526 9.631981 20.213499 -5.210230 -11.032136 -7.637910
75 18.658377 23.732632 19.422983 3.613170 4.496190 4.756990
76 2.710218 2.560351 21.316389 9.639331 3.037380 3.198568
77 3.922886 15.626161 21.535433 -1.674202 -2.063450 0.876740
78 4.383570 0.855409 14.220461 -0.003260 -4.460670 -6.279815
79 1.551759 23.066456 22.688372 7.451840 -7.365698 -0.446000
80 9.044964 12.722244 19.331871 -0.194230 1.876930 -4.006768
81 22.498190 20.681461 11.147939 -6.626962 23.052391 -7.393840
82 12.983123 0.175829 6.732593 -4.448360 -7.392120 7.393952
83 7.123419 6.998663 24.279217 -1.212756 7.236170 -2.732352
84 3.804491 15.167772 11.921083 -7.217426 -1.525845 -7.474440
85 7.063580 18.401606 11.920084 -2.426676 0.263242 2.570620
86 21.475256 1.787886 5.570616 3.144820 2.151262 1.028716
87 2.740701 1.736860 5.406678 -12.285991 20.772360 -1.601158
88 11.560778 16.166933 10.498283 -4.770760 0.681240 1.920059
89 20.979483 23.948761 22.147760 -4.709211 7.502930 6.487353
90 9.947760 19.301971 8.784183 -10.101575 -0.083880 1.766670
91 10.586153 9.532086 16.386950 4.401320 3.148230 0.693492
92 22.054277 7.310134 10.953690 1.373760 -1.215810 -0.827975
93 3.729661 24.960220 11.190495 12.861120 -1.657060 2.460710
94 14.572339 5.265578 22.051178 -3.560912 -0.554493 -2.886190
95 12.665372 12.033922 15.883394 7.859157 -3.057898 1.050300
96 16.105705 17.233110 16.410994 1.274306 7.004360 4.311990
97 9.400459 11.596278 14.709172 3.662900 2.930736 8.409320
98 20.712523 24.093100 24.831993 1.995766 -4.692285 2.861754
99 21.911499 22.371172 14.214705 -7.817390 2.286758 11.807120
100 24.321606 14.355933 12.788983 -8.733161 -4.569204 -2.439225
101 10.177756 18.268499 15.192656 -5.779860 -1.754957 3.972660
102 6.864242 0.692394 4.417057 -3.841055 3.675614 -2.300420
103 17.807039 4.181544 8.329561 -0.777789 -5.202264 4.156310
104 14.458261 4.200008 5.567467 8.686200 -1.840342 -3.758760
105 6.996463 6.964307 2.630415 -2.779755 11.826869 1.034459
106 21.893061 22.097584 3.618808 -5.197970 8.668138 1.979510
107 10.687311 18.032005 12.567039 2.696718 -9.260406 -9.033831
108 6.513096 21.067661 15.577983 -5.314950 1.906100 -6.086180
109 8.970819 15.277223 20.409439 8.766809 1.457770 0.923762
110 13.750861 8.872002 20.668934 7.515837 -7.461350 -17.625450
111 10.386560 8.630751 8.249321 16.157579 16.112009 -3.715196
112 19.847517 7.848736 13.077822 -5.487364 -1.541330 -4.235002
113 20.915539 5.656577 8.077570 -8.305660 10.230640 1.384648
114 11.211477 10.238544 24.937057 4.368007 -3.054587 7.529200
115 21.923122 21.673393 16.984467 1.929100 -8.601631 -11.706884
116 12.149361 19.772217 16.423134 -7.276919 11.232968 0.264540
117 22.838861 9.108975 16.145817 -3.032332 -2.766735 0.210278
118 11.997334 20.564049 7.678239 7.377125 -5.156510 -0.342264
119 14.712090 10.144306 1.809346 3.239813 10.941450 6.936420
120 20.336878 24.220665 4.777795 3.659532 -0.604107 -1.264210
121 18.916018 20.490871 9.444735 -0.112518 4.419209 -3.056676
122 5.696148 19.566183 4.612367 1.424920 3.803290 1.624380
123 4.421149 4.241910 1.164983 1.680780 -6.229440 -0.528627
124 18.892122 13.133966 24.175394 -2.813550 -1.257090 -0.783640
125 23.598827 6.681221 24.076595 -9.335490 -2.930896 -1.674259
126 3.533483 4.738400 19.604778 -5.846791 2.789467 -7.958260
127 4.296834 7.209001 12.219594 5.029420 2.396146 -4.163133
128 1.854789 0.697796 7.943911 -0.093620 -1.148768 7.164490
129 3.308064 24.647800 4.158616 9.773900 -19.952641 -19.713116
130 22.414568 7.675761 6.794199 1.134690 2.473541 -1.156825
131 5.164214 1.512337 17.717789 -11.944901 -1.185009 -7.372082
132 13.906012 13.169662 19.487200 -3.622510 2.720673 -2.131587
133 11.712029 22.349527 12.104350 15.830800 7.954774 3.772657
134 7.437899 18.603889 16.461899 0.606720 -0.192510 -1.908890
135 20.714907 6.106723 23.456989 1.484910 -1.438298 0.124440
136 3.848408 19.381706 11.436811 -5.263434 -9.171809 0.788492
137 10.351900 5.127561 14.491411 -6.416160 -0.624960 -7.487540
138 2.194690 14.649667 9.588698 3.176020 -3.776390 4.132340
139 10.478896 10.389123 19.108166 0.792930 -1.295726 0.126120
140 14.083761 6.843738 5.487183 -3.714108 -1.257580 -3.890760
141 4.150811 11.146877 1.163475 -0.692512 7.800881 -1.146433
142 13.549245 3.158822 2.956017 7.865210 6.740198 -3.142032
143 1.917616 18.776228 8.083859 -3.090760 5.216269 0.693006
144 15.009810 5.781277 2.748256 -6.628005 4.068931 8.966160
145 15.738744 2.047414 10.739745 -21.428247 -2.584620 9.224494
146 15.216084 7.921843 17.720844 -0.331140 7.167580 5.961438
147 2.673590 23.299950 9.097918 6.445520 1.421480 3.973240
148 18.296690 16.177816 20.724407 5.234359 -0.389800 -6.636590
149 10.255418 13.053634 2.767408 -13.870750 -4.039980 12.039463
150 4.970555 1.483286 23.344246 0.264571 0.692095 1.330470
151 18.457756 3.661663 17.637493 -1.435300 2.782086 -8.328100
152 14.825817 0.955258 19.973139 -1.412826 -1.439117 -5.394025
153 13.206994 8.965731 15.193605 -3.452286 2.858741 10.387352
154 24.678434 10.719183 13.612040 -7.649149 0.782860 -2.574440
155 0.954132 5.046244 9.023365 -15.128650 -3.880241 6.039230
156 2.728524 9.519962 12.906384 5.645288 2.747390 -6.010370
157 6.339590 16.681894 20.844450 -7.375206 8.420780 6.141150
158 24.320656 5.766996 14.097834 -2.143970 3.851000 1.935353
159 11.634478 11.524777 8.951833 -1.652016 -0.665304 -1.613790
160 21.045721 1.214041 20.687616 -5.343068 2.283922 -1.776918
161 0.905241 18.731049 4.773877 -3.800638 -2.949896 -5.797970
162 24.845707 20.689310 18.866774 -8.616729 8.415529 -7.893528
163 3.541319 4.347292 4.044906 3.524964 -8.103870 5.251120
164 22.564089 0.763878 18.371645 2.677379 0.883207 -5.532813
165 1.864546 11.300667 15.030272 3.224841 2.135191 -2.174481
166 1.758702 20.166573 1.258696 4.137837 -1.521578 5.876410
167 2.201228 14.290123 4.375406 -2.500840 0.296640 2.381060
168 3.564313 14.895661 17.946962 1.608155 -4.160390 1.243913
169 0.984999 15.830900 16.844988 -0.125990 -6.148060 -1.647681
170 16.348862 3.706165 19.596355 1.968830 -3.192619 -4.870263
171 0.094796 2.275496 21.645277 -4.888414 -4.815010 -0.565960
172 9.778762 21.130922 4.326501 -4.385699 1.939476 -4.784150
173 14.990800 23.974510 3.430302 -0.984776 10.368610 1.909066
174 2.079598 5.648357 1.194340 7.313613 4.853668 -0.605793
175 20.087410 3.028799 23.060190 0.490074 6.104318 -12.904212
176 18.397789 1.936320 20.186939 2.680570 -6.133050 0.533684
177 4.536798 22.266632 0.218653 2.847550 -3.558134 -10.396770
178 0.209526 13.084172 17.528654 -5.169463 8.352218 -1.814775
179 16.304911 0.672948 5.979487 3.642640 1.778032 0.448040
180 6.007318 3.153461 3.205474 0.418638 2.696440 1.800790
181 24.206272 12.465395 23.496038 0.576425 -6.369506 -8.215745
182 12.129339 5.158947 12.411483 0.976132 -4.249200 -0.273948
183 19.197884 11.087439 17.472399 0.257155 2.459070 6.467711
184 13.217173 6.065230 16.654301 0.253284 -5.492780 -4.871779
185 21.916416 6.427219 16.238138 1.687263 0.457384 0.072987
186 13.766562 20.169582 1.020005 7.531233 -2.398052 2.226770
187 3.125562 13.755288 15.373822 -3.079940 -1.111480 -2.330396
188 8.314671 3.906582 9.744461 -1.799343 1.966358 -1.576571
189 9.440103 14.386255 5.334438 -10.352709 -4.375085 -8.257500
190 24.748196 1.536332 12.896083 2.031230 -7.682608 1.044146
191 10.570167 23.522312 14.233861 -4.158476 5.334213 -4.324146
192 23.883644 19.245163 21.595289 -1.994064 0.115578 9.894460
193 15.762711 19.405710 14.782155 1.592189 1.828490 -1.618170
194 20.908812 13.467189 4.741158 -8.658664 -5.156586 5.025831
195 2.426959 7.951717 2.607871 0.434270 2.346846 -2.295321
196 5.937523 9.397541 16.225718 -0.473749 0.150470 6.672391
197 7.734726 10.664908 5.964814 -5.621422 4.099783 1.007160
198 20.179068 18.479143 11.928367 -6.503600 -2.005010 -6.664982
199 6.523731 0.379743 11.546083 -2.625005 9.533880 5.112900
200 13.836833 18.413517 17.924444 11.028170 -2.286940 6.388525
201 16.129095 22.449057 12.438062 -0.984402 9.864051 6.822958
202 22.166212 21.811722 21.276806 7.040970 -13.142684 -6.840157
203 24.582916 14.522840 9.865914 -7.490158 2.502280 3.407757
204 23.506317 13.945722 4.901346 -2.994080 5.360320 5.335836
205 22.124474 14.433755 20.947001 6.454650 4.278030 -13.598490
206 23.008801 18.399267 19.137505 5.529455 4.180526 -3.763621
207 22.445749 13.644061 16.948523 0.670798 -3.443851 -2.626580
208 22.240705 10.418523 22.218945 -4.907500 0.336200 -2.903888
209 4.698753 11.043423 22.129805 -2.161450 -1.204067 -4.135126
210 17.885393 3.829363 2.882142 0.315470 -8.652548 -6.709770
211 10.886839 10.272726 5.090225 -4.959990 -1.486911 -3.862765
212 17.862177 22.219349 14.725172 1.097000 5.156850 -1.578624
213 17.493361 10.873089 6.390414 6.310150 4.534442 -7.167610
214 3.938937 21.391022 22.692799 -6.263830 -0.775750 -0.551612
215 2.076608 14.811350 1.264798 1.016664 -2.778860 18.138031
216 13.743356 8.674828 23.242495 4.227185 -9.684688 15.259840
217 2.647007 0.192413 18.626900 4.087820 -4.334615 -2.123536
218 8.101600 4.690053 1.869762 -3.198310 -5.824789 -0.342330
219 22.602615 17.123951 8.647189 6.739860 2.381295 4.843203
220 21.181290 19.117588 5.162118 -2.122020 -6.924973 -7.781854
221 7.430511 16.213383 18.339388 3.704390 -5.619160 -3.539846
222 5.089147 11.687406 6.135021 -1.770191 4.578121 -2.147280
223 19.007183 4.847579 13.892944 -4.792551 0.420894 5.597894
224 3.433180 16.470301 8.025039 2.450856 1.896095 7.215620
225 6.982543 15.161667 1.480043 -12.300890 5.596000 6.601670
226 14.608455 22.818323 1.066429 -5.746917 -6.042729 -11.606464
227 12.773656 24.289789 20.459616 0.569950 -4.211980 7.370690
228 16.858295 20.950899 17.264078 -3.165130 -5.805490 -2.944950
229 19.885006 16.744078 8.177987 7.863010 -3.050654 5.289900
230 0.809725 12.145756 8.162180 5.271680 4.777580 0.308274
231 24.873653 10.352266 9.935793 1.339766 -3.068870 2.813520
232 7.193050 3.126827 6.978104 4.973156 2.474380 4.547450
233 16.700005 13.167745 19.168888 3.666644 -1.395945 -2.550854
234 9.926182 17.013922 5.760863 6.775500 1.812824 8.951238
235 11.954172 10.670161 2.619354 2.208192 2.170220 -2.446208
236 16.258883 5.938435 10.977211 -4.906410 -1.187530 -1.053630
237 16.196196 20.476345 9.042984 -7.846865 2.078790 -11.219446
238 23.641237 22.206161 5.757424 1.466801 1.228770 -0.319636
239 20.038439 16.429449 5.639339 -3.569423 -0.734210 -21.319210
240 5.455769 21.798672 19.170872 -0.284749 3.830807 -3.882453
241 16.305489 11.960089 3.784387 6.025040 -0.717455 -4.978310
242 11.327644 3.925920 16.636740 7.179270 1.087531 4.043890
243 21.076406 2.881709 17.007334 2.172570 4.717447 5.951472
244 24.325531 9.155453 23.229134 9.327675 -0.920110 7.757065
245 6.874939 13.962928 13.094450 4.256153 2.682190 4.027803
246 17.299673 7.709212 14.071350 -0.373762 1.470978 4.024009
247 25.026354 4.641613 2.397726 -8.001372 -2.961125 -2.271815
248 6.845026 11.957377 15.696439 6.448550 -3.828807 2.061615
249 17.969267 13.775412 11.420472 -0.549670 1.293281 -3.843770
250 1.462017 4.028024 24.214838 1.170312 -6.729287 -3.031185
251 23.864367 18.574005 11.737744 9.724649 -20.628611 0.006260
252 15.528333 10.018781 7.923315 -10.390317 0.393184 5.132103
253 12.774712 14.418372 3.821623 -11.202579 -3.304060 1.113829
254 19.054922 7.387506 0.500975 0.434910 3.209294 -0.540602
255 7.522265 5.072013 14.428561 -2.726515 -6.046989 -4.117175
256 20.108883 9.986895 6.692794 -2.009530 -1.648540 1.981594
257 19.054815 10.132096 21.298477 1.131919 1.171410 -14.053603
258 6.637980 11.715022 18.635267 -5.332933 3.017360 -3.675683
259 17.532017 15.187950 5.357330 3.536660 -1.364310 5.709904
260 17.591417 10.394179 14.695122 -0.225039 -8.227365 10.652109
261 6.430915 5.233228 22.271038 -1.245452 -0.933079 -4.506227
262 4.600199 20.281624 1.949710 -0.518980 -11.575300 3.145430
263 4.442760 6.978567 4.207317 -3.529245 5.743969 1.648780
264 19.082602 9.058266 3.448298 0.119719 -7.093436 -1.711990
265 22.737661 13.852095 0.257617 2.740546 -4.276065 6.166060
266 8.600104 5.431521 6.183837 5.871630 -9.846014 -0.498712
267 9.980305 6.529797 9.705426 -3.257296 -10.826359 10.404680
268 9.244047 10.437095 11.090878 1.055468 5.235800 -1.129840
269 12.854012 6.105365 20.138166 3.054463 10.886975 -0.077818
270 11.110300 19.683962 18.928650 14.412020 5.788820 1.589266
271 1.250313 11.109344 1.901367 -6.682580 -2.864559 2.628985
272 7.399980 21.086033 11.457605 0.844350 -2.300308 0.965568
273 13.773989 17.680889 9.702434 -2.619780 -3.606420 1.852430
274 13.986523 10.750509 10.112076 1.141990 -5.354441 -2.940969
275 21.035461 16.942760 20.891701 -6.045189 1.980560 1.260040
276 0.558150 9.351451 16.827194 0.061437 -1.950110 -1.163810
277 16.873344 1.081971 3.192561 9.025360 3.201739 5.901520
278 22.155582 4.039865 9.774721 0.604501 -6.690570 11.740886
279 8.007444 22.619324 22.293589 -3.032165 13.837950 -8.184709
280 22.807232 2.588941 14.424171 1.308340 2.224600 0.162060
281 18.914455 7.656250 7.742179 2.262344 -0.534970 3.957430
282 20.478516 12.415361 11.433290 2.499505 -2.193020 1.957351
283 6.802544 14.971450 4.206263 -0.492446 -0.976850 4.540470
284 12.588211 21.094233 3.479999 -0.597350 4.366920 -8.715600
285 19.170912 11.781994 3.315598 -10.233487 4.341160 4.151210
286 6.598349 15.542172 10.882729 2.481213 -1.506731 4.602915
287 17.093622 19.536734 6.603411 1.256660 -0.017190 -1.430320
288 5.035158 25.013014 6.297330 4.273280 -4.495128 6.438123
289 10.273116 18.734301 1.343603 4.429213 1.084898 2.669606
290 11.223377 6.960486 6.077017 -1.966510 -7.335550 -0.170040
291 17.654705 8.767435 10.067266 -12.223761 -4.415879 -9.523530
292 3.160188 21.378611 7.184372 2.339061 -7.800150 -2.054370
293 21.238434 11.516233 1.435508 -4.420800 -1.164089 -0.073473
294 24.878010 7.556472 10.420880 -0.821646 3.217682 1.703560
295 24.557013 22.257395 9.351971 2.914450 -11.747680 5.118390
296 12.016000 6.797380 24.535217 -4.441140 2.524230 -0.603590
297 2.042438 20.433556 16.325384 -1.783109 -1.664890 -3.441260
298 22.164368 12.329461 14.206384 4.595320 5.214544 -4.651616
299 6.706587 11.744250 9.684847 -5.198140 2.066264 -0.904037
300 7.192493 18.661116 7.825325 0.209159 -9.651538 2.630001
301 5.699896 13.453172 22.890995 5.003410 4.698160 2.328323
302 22.611427 23.887667 8.797766 -15.149862 4.835177 -5.095003
303 18.038921 20.017122 13.101444 0.142210 -1.230267 1.533043
304 24.238260 17.208338 14.273717 1.281130 -1.565016 -4.404098
305 15.949883 6.914228 23.605839 4.350665 5.827651 2.956047
306 23.827194 3.801754 23.472578 -0.264030 6.499554 -0.158700
307 4.261916 10.389780 19.450521 5.344296 0.472860 4.708827
308 5.226423 22.217018 13.286639 -4.303006 6.099909 4.621031
309 1.101253 23.555334 2.604006 -2.422100 9.036217 -2.852990
310 13.278466 19.486906 22.997416 -5.488974 2.502230 2.280080
311 4.176915 11.220879 8.818600 -3.737710 4.398114 -2.684380
312 19.909922 14.883878 16.629995 6.407530 -6.423061 1.437468
313 11.627495 23.799112 2.619756 0.506190 -5.991345 0.137430
314 9.746791 8.050684 0.452266 -10.551900 -1.775750 2.312380
315 6.677835 10.492566 12.245950 7.534039 -6.925112 -3.759660
316 20.843779 3.120333 12.550777 4.785060 -3.172790 -8.375660
317 9.070663 22.688612 1.875876 3.889191 4.429800 1.607530
318 0.274765 8.144505 13.092184 1.117456 -0.092011 -0.134640
319 1.660388 1.449006 10.924500 -5.061630 5.706782 -5.432674
320 20.848501 15.685350 1.295271 -11.618571 -5.293354 -4.124707
321 10.401665 12.723306 12.289595 -3.311360 -1.452627 -4.789811
322 21.777695 5.556589 13.078089 -4.624714 13.110960 0.076788
323 5.997302 22.523273 7.509588 -10.954972 -1.637249 -0.677460
324 22.515217 1.688292 8.373519 2.370690 2.820997 -5.245602
325 6.487410 6.429905 9.022812 -1.936940 -8.657331 -3.861751
326 4.911304 19.452932 20.397200 -5.071966 -4.620172 1.485143
327 2.909075 18.381521 18.504438 4.797400 7.733740 2.988140
328 16.043350 0.691331 16.857183 2.818984 -0.010675 1.961101
329 1.404392 22.471584 11.333795 6.354667 0.358455 2.554901
330 7.301906 2.742179 18.744249 11.142340 -5.580250 4.760343
331 13.521566 0.605349 12.176022 5.179148 3.106980 1.444760
332 17.282290 5.195002 0.489173 6.437770 -2.558640 0.149906
333 22.665712 0.148201 11.417077 -5.826323 2.983824 -0.267980
334 0.299913 21.181055 3.809282 4.284122 -3.128750 5.512610
335 4.355760 24.550825 1.537606 -4.007220 10.743891 2.413656
336 24.934299 15.094822 21.005333 -0.712716 -3.653090 -1.500444
337 11.453767 12.968977 6.310015 7.634190 -4.081690 -0.028506
338 24.217146 18.601171 6.875985 -1.990540 -0.590421 7.648115
339 16.397167 16.850838 7.611111 10.097620 -2.474062 -5.866870
340 16.069139 19.282412 11.400972 -0.596240 -5.924712 8.020467
341 10.139367 20.473888 11.420283 -10.939047 -12.924750 -3.938260
342 15.682111 20.310167 21.434727 -7.232710 -1.910500 -1.234333
343 17.894833 15.700772 13.438878 0.927670 1.183980 8.081759
344 11.153106 22.487810 16.566788 2.483020 -8.137110 4.437000
345 22.664705 5.700741 1.497388 -2.133949 -3.377038 0.844010
346 16.598568 14.450483 8.939975 -0.649797 -0.670240 8.446810
347 8.565130 12.949439 7.871659 1.016350 1.850253 1.346345
348 23.974878 10.644245 4.840167 -3.714250 -0.588180 0.243700
349 2.646327 11.915029 11.207633 -2.881905 -4.064280 -1.886000
350 2.232284 7.226973 16.137800 0.447915 3.793561 1.002530
351 0.824279 24.547413 15.601167 -5.768798 13.023957 6.919689
352 15.312551 22.547194 19.048201 1.914045 -2.188223 4.233190
353 20.149921 22.189451 11.233666 3.846020 -8.378956 11.554800
354 1.203916 19.596910 10.722539 -3.430701 1.456112 1.960850
355 1.935551 17.340477 2.303981 -0.763860 6.340846 -1.939566
356 8.577867 8.472595 20.392860 8.970570 2.435079 -9.600468
357 11.883295 24.301271 10.194979 2.461718 0.953980 -7.471808
358 3.634442 5.145204 13.780412 19.482969 6.461866 0.374789
359 9.902584 0.913193 24.788033 8.938694 -13.684700 1.557838
360 14.270255 18.297733 7.086201 -13.993561 2.566470 -5.706819
361 8.689362 19.041616 19.519083 -16.868509 -7.579290 -11.281587
362 12.915622 1.320013 15.819712 1.762970 -3.710479 -0.307978
363 6.540541 8.954152 22.059813 -4.077735 -3.386140 8.369591
364 23.974388 17.924395 2.956414 5.237741 2.113658 -2.200144
365 8.372051 23.645550 7.825530 13.314486 6.027610 -3.605729
366 4.737147 8.574082 0.982749 5.701320 -7.431520 -2.333295
367 4.101112 4.090963 23.234800 -7.299773 0.630158 -2.870110
368 15.159750 3.625842 16.689117 -8.856310 -0.324480 14.540262
369 14.458272 7.870200 13.177706 6.346098 -3.214660 -9.191680
370 16.337595 17.522961 21.845139 -9.774870 2.426717 -0.350975
371 18.906900 24.723730 14.209995 -5.060750 -12.945520 -0.819048
372 24.137161 0.351736 2.250435 4.796259 -6.984316 -13.221261
373 18.941505 6.151085 10.698539 3.084609 -2.826758 -1.650710
374 15.798856 11.431150 21.659679 2.814645 4.431710 6.400960
375 24.376623 5.303716 5.810994 0.468504 1.701967 -10.966890
376 17.902344 9.405900 23.580406 0.289220 1.853560 8.161430
377 12.802400 24.976683 0.131240 1.972201 5.800340 1.170066
378 10.147677 6.022596 19.546339 -10.042994 8.690990 0.126883
379 8.741916 3.792368 22.064405 1.872180 -7.613460 3.654143
380 3.338939 21.719645 4.262241 -8.505103 0.849833 4.798313
381 17.380077 23.072571 10.158241 0.598410 8.139835 -1.766614
382 5.297922 5.801230 15.963056 2.437180 1.578097 -0.694740
383 20.472538 3.863574 1.395146 -1.606706 8.836556 4.614953
384 18.621149 24.555309 16.820078 -5.997860 2.295670 6.583850
385 6.579681 2.654531 13.323622 -2.678418 -2.761420 0.792143
386 12.383628 15.427267 23.835028 2.227137 1.349320 -2.050860
387 7.171793 22.754639 24.782694 -0.029880 4.876729 11.075142
388 15.075977 23.318762 6.200166 -5.570465 -3.434772 2.494020
389 15.700189 0.145552 13.806806 2.184906 -6.365440 0.376027
390 17.964806 4.654771 5.498215 6.235041 3.569494 -1.656208
391 14.262873 15.636355 15.421711 1.758190 2.557478 -7.571800
392 17.336178 16.539272 1.783242 -1.615320 -2.152700 -4.012618
393 24.687492 4.321181 11.496873 6.213936 2.554510 -1.311480
394 13.604056 5.634106 10.059487 -3.121470 1.535370 1.763650
395 16.976128 6.230046 19.116106 -2.313637 1.994871 1.222433
396 9.235177 1.376798 2.358813 -0.426069 2.985754 1.633660
397 1.205174 5.374286 17.821310 -11.363430 -0.242928 4.751080
398 14.854667 13.233633 11.047383 -0.391789 3.665007 1.911294
399 12.094922 4.726081 22.832371 -0.557903 -6.698220 -2.730310
400 12.697778 17.888817 20.559189 0.605208 1.426000 -7.634608
401 5.656951 8.916439 9.009577 -1.955850 5.734274 -0.521000
402 23.313560 16.834929 23.047478 4.438854 2.400109 -2.894832
403 1.350490 4.158339 13.896189 -20.692450 -16.447590 0.700130
404 1.545494 16.545311 22.723522 4.954640 -5.004782 -4.783810
405 7.017673 0.594842 0.409006 -1.956340 -1.344558 3.746030
406 15.106267 17.792917 24.314816 -2.227043 -6.745067 -0.958891
407 5.172114 17.679018 9.841613 5.490090 -1.379700 -6.513251
408 2.231635 23.104155 13.965128 11.099300 -11.511390 -8.514101
409 19.865540 24.831541 10.927061 1.064400 4.488493 -1.680042
410 3.441232 18.089033 5.412179 3.930362 -0.782024 -4.706262
411 13.654384 23.731501 17.034433 -0.677110 10.884837 -1.660641
412 20.977362 1.645814 0.014985 1.715187 -6.356238 10.189140
413 8.356664 13.014211 24.166143 -6.321957 5.006649 -8.641560
414 24.062223 2.252913 4.027306 -3.967892 5.962712 14.583759
415 13.443945 11.363100 23.598427 -2.842680 2.618780 9.048330
416 24.888577 22.073959 16.400589 -4.217857 -5.778101 1.602640
417 9.102782 14.296300 10.162712 -1.247350 6.411331 3.355280
418 13.697789 7.757442 1.373320 -2.564451 -8.599529 -4.465199
419 20.452539 10.274918 14.247184 3.834953 -0.866660 12.191500
420 8.161022 7.875352 7.187648 -11.590389 2.910467 -3.655830
421 13.463156 17.448816 13.470584 2.969616 0.767129 0.296991
422 13.073861 9.350796 6.479752 1.722780 4.240040 10.764302
423 22.368572 6.251812 20.738144 -6.225409 2.865751 2.383106
424 21.372057 23.311960 18.930256 -0.242831 13.376805 10.382886
425 10.348579 13.309267 16.931778 -4.651740 -4.248580 -5.443660
426 16.729822 20.065561 1.936430 -3.284525 1.276215 -1.731230
427 20.097883 5.661121 19.122589 0.722854 -2.684405 0.900214
428 20.665306 12.588995 22.169811 -12.053539 -5.726644 5.899887
429 17.012016 11.427138 12.403305 -5.194949 4.636910 -11.147250
430 4.367222 17.897821 24.826662 6.054005 7.960415 0.827799
431 18.493282 1.931237 12.941883 -6.754582 6.694990 -5.518120
432 22.125999 20.609716 24.265800 -4.501120 6.075930 0.848720
433 10.957395 16.496300 3.372619 4.525020 5.541484 -4.105791
434 19.872250 9.679411 10.975622 14.502450 2.921640 6.224869
435 10.750022 7.350587 2.926837 8.942128 -0.925019 -6.195660
436 4.361104 15.488823 5.641684 3.898870 -2.250230 -9.552420
437 10.360894 3.569573 24.643482 -1.427653 11.823540 -2.807625
438 17.399588 19.063885 24.399984 11.175058 15.093562 5.533177
439 4.060308 3.088203 12.034811 2.300306 3.503312 -4.842292
440 13.949261 21.970633 9.029213 6.615590 2.517077 -0.405249
441 7.387348 17.425123 5.211684 -5.477557 4.652703 4.521510
442 10.633634 16.779978 18.150490 1.976990 -3.983870 -1.454019
443 9.680166 15.380267 23.321159 -7.042857 -3.894200 4.409990
444 15.306778 14.638522 3.094707 13.282145 -5.296780 6.917138
445 12.660833 14.476360 12.359950 2.044503 -4.143470 4.541082
446 14.689622 24.823290 9.292867 -7.406010 -3.910916 -2.260026
447 7.698435 12.651100 1.685589 7.427830 -12.767720 4.270820
448 15.111744 1.891962 0.996819 -8.334881 -5.087640 -5.795864
449 0.198993 12.133789 20.501385 -0.599430 10.932730 1.263580
450 6.953032 5.936135 11.887456 3.793839 -6.843640 -1.437666
451 23.240833 10.464194 18.513805 7.513290 -6.952507 -0.102617
452 15.280644 2.456236 7.845319 1.457616 2.583020 -4.396440
453 18.409605 0.003160 7.709437 -3.044449 -4.179350 2.185053
454 17.307011 6.745338 3.845113 2.736860 7.596680 -2.399135
455 4.436471 2.758266 7.131709 1.403480 6.248490 7.506113
456 16.124039 15.256839 24.292112 2.427970 -4.296947 -0.440909
457 9.387280 1.247655 10.305583 3.509260 8.232845 6.520740
458 1.024181 23.362934 6.725681 -7.697467 2.042711 -1.115874
459 16.601534 23.000479 21.508633 -0.270690 2.695608 -1.719450
460 3.230843 22.551205 17.519051 5.736690 5.002820 2.352255
461 12.232528 13.825706 1.058273 15.269441 7.266082 -8.629330
462 11.626994 2.518072 11.689183 -6.386479 -0.954807 -9.142939
463 16.582039 3.677878 14.525294 11.123230 -4.958290 -14.985100
464 7.107150 5.342641 19.375200 2.177364 -6.357900 9.670681
465 22.455240 14.451562 7.601449 0.296316 0.882958 -2.128650
466 20.726606 20.361172 19.337233 -6.779289 -0.276880 -4.691238
467 15.958589 18.598835 4.161508 3.358897 0.376550 2.632413
468 22.930006 10.227116 7.922893 -0.659360 2.937201 -0.141745
469 12.560044 14.805694 17.242718 -7.173480 -5.370860 11.294200
470 12.990444 0.794699 4.171471 2.458401 -0.365098 -4.602890
471 4.966197 5.697520 6.590980 2.287010 -7.002010 8.078974
472 12.676756 8.174241 10.885227 1.756471 2.492390 -0.677139
473 12.514151 4.649540 7.269140 -7.341020 -4.377657 5.452645
474 6.872815 3.390154 24.783037 0.620770 2.498313 -2.639279
475 8.002809 20.869543 6.469192 -4.343663 0.735034 -3.655950
476 20.130533 19.008860 22.922495 4.912668 -2.789403 -0.725388
477 17.116600 13.808050 21.922760 2.343434 -3.075032 11.355671
478 18.307066 13.830939 1.738045 3.858141 11.317401 -4.753427
479 21.378662 12.298983 19.082750 -7.142588 4.953220 -5.669978
480 2.752791 11.675267 23.970095 -3.603770 -3.768935 3.368270
481 18.843328 17.342810 16.449972 -6.013446 2.408147 -1.686791
482 0.034256 0.233619 19.468718 -3.865207 -1.413432 5.204800
483 2.078668 9.257501 22.627605 2.982816 -0.177336 3.496920
484 15.094639 12.974555 0.223968 -3.589424 -5.778080 3.177520
485 21.826715 9.438280 3.280798 6.680770 -0.908987 8.872957
486 21.832071 19.697872 2.479658 0.846452 -6.905430 0.378392